<PP_HEADER pseudo_type="USPP">dummy
</PP_HEADER>
